HEADER
"PSFversion" "1.00"
"V0n" "analogLib_vpulse_spectre"
"C0n" "analogLib_cap_spectre"
"I6n I5n I4n" "FO4_inv_stage"
