HEADER
"PSFversion" "1.00"
"vddd!v" "vddd!v"
"vdd!v" "vdd!v"
"gnd!v" "0v"
