HEADER
"PSFversion" "1.00"
"NM0n" "gpdk090_nmos1v_spectre"
"PM0n" "gpdk090_pmos1v_spectre"
"Av" ":1v"
"GNDv" ":2v"
"VDDv" ":3v"
"Zv" ":4v"
