HEADER
"PSFversion" "1.00"
"I26n I25n I24n" "NOR2X1"
"I28n I27n" "INVX1"
