HEADER
"PSFversion" "1.00"
"__NEXT_FILE__" "new_1bit_comp"
