HEADER
"PSFversion" "1.00"
"I15n" "magnitude_detector"
"I14n" "new_comparator"
"GNDv" ":1v"
"OUTv" ":2v"
"T0v" ":3v"
"T1v" ":4v"
"T2v" ":5v"
"T3v" ":6v"
"T4v" ":7v"
"VDDv" ":8v"
"X0v" ":9v"
"X1v" ":10v"
"X2v" ":11v"
"X3v" ":12v"
"X4v" ":13v"
"X5v" ":14v"
