HEADER
"PSFversion" "1.00"
"V3n V0n V5n" "analogLib_vpwl_spectre"
"V6n V7n V8n V9n V11n" "analogLib_vdc_spectre"
"I21n I12n I1n I0n I14n I13n I3n I2n I18n I15n I7n I4n I17n I16n I6n I5n I20n I19n I11n I8n I10n I9n" "INVX1_schematic"
"GNDv" ":1v"
"T0v" ":2v"
"T1v" ":3v"
"T2v" ":4v"
"T3v" ":5v"
"T4v" ":6v"
"VDDv" ":7v"
"X0v" ":8v"
"X1v" ":9v"
"X2v" ":10v"
"X3v" ":11v"
"X4v" ":12v"
"X5v" ":13v"
