HEADER
"PSFversion" "1.00"
"mp0n" "gpdk090_pmos1v_spectre"
"mn0n" "gpdk090_nmos1v_spectre"
"Av" ":1v"
"Yv" ":2v"
"VDDv" ":3v"
"VSSv" ":4v"
