HEADER
"PSFversion" "1.00"
"I1n I0n" "INVX32"
"GNDv" ":1v"
"OUTv" ":2v"
"VDDv" ":3v"
