HEADER
"PSFversion" "1.00"
"I4n I3n I2n I1n I0n" "XOR2X1"
"I27n I26n I25n I24n I23n I22n I21n I20n I19n I18n I16n I15n I14n I13n I12n I6n I5n" "NAND2X1"
"I8n I7n" "NOR2X1"
"I17n I11n I10n I9n" "INVX1"
"GNDv" ":1v"
"M0v" ":2v"
"M1v" ":3v"
"M2v" ":4v"
"M3v" ":5v"
"M4v" ":6v"
"VDDv" ":7v"
"X0v" ":8v"
"X1v" ":9v"
"X2v" ":10v"
"X3v" ":11v"
"X4v" ":12v"
"X5v" ":13v"
