HEADER
"PSFversion" "1.00"
"mp3n mp2n mp1n mp0n" "gpdk090_pmos1v_spectre"
"mn1n mn3n mn2n mn0n" "gpdk090_nmos1v_spectre"
"Av" ":1v"
"Bv" ":2v"
"Cv" ":3v"
"Dv" ":4v"
"Yv" ":5v"
"VDDv" ":6v"
"VSSv" ":7v"
