HEADER
"PSFversion" "1.00"
"I1n" "NAND2X1"
"I3n" "OR2X1"
"I0n" "NAND3X1"
"Av" ":1v"
"Bv" ":2v"
"Cv" ":3v"
"Dv" ":4v"
"Ev" ":5v"
"GNDv" ":6v"
"VDDv" ":7v"
"Yv" ":8v"
