HEADER
"PSFversion" "1.00"
"mp0n mp1n mp2n" "gpdk090_pmos1v_spectre"
"mn1n mn2n mn0n" "gpdk090_nmos1v_spectre"
"Av" ":1v"
"Bv" ":2v"
"Cv" ":3v"
"Yv" ":4v"
"VDDv" ":5v"
"VSSv" ":6v"
