HEADER
"PSFversion" "1.00"
"I26n I25n I24n" "NOR2X1"
"I28n I27n" "INVX1"
"Av" ":1v"
"Bv" ":2v"
"GNDv" ":3v"
"Q1v" ":4v"
"Q2v" ":5v"
"VDDv" ":6v"
