HEADER
"PSFversion" "1.00"
"I12n I13n I14n I15n" "new_1bit_comp"
"I4n" "NOR2X1"
"I11n I5n" "INVX1"
"I6n" "NAND2X1"
"I7n" "NAND3X1"
"I8n" "NAND4X1"
"I17n I16n" "NAND5"
"A0v" ":1v"
"A1v" ":2v"
"A2v" ":3v"
"A3v" ":4v"
"A4v" ":5v"
"B0v" ":6v"
"B1v" ":7v"
"B2v" ":8v"
"B3v" ":9v"
"B4v" ":10v"
"GNDv" ":11v"
"Qv" ":12v"
"VDDv" ":13v"
