HEADER
"PSFversion" "1.00"
"I18n" "Abs_Value_Detector"
"I19n" "Load"
"I20n" "Driver"
"V1n V0n" "analogLib_vdc_spectre"
