HEADER
"PSFversion" "1.00"
"__NEXT_FILE__" "tb_Abs_Value_Detector"
