HEADER
"PSFversion" "1.00"
"I14n I13n I12n I11n I10n I9n I8n I7n I6n I5n I4n I3n I2n I1n I0n" "INVX1"
