HEADER
"PSFversion" "1.00"
"design" "(\"ee115c\" \"hw2_NMOS\" \"schematic\" \"\")"
"simulator" "spectre"
"temperature" "27"
"host" ""
"date" "Jan 23 17:51:42 2020"
"title" ""
"analysisList" "()"
END
