HEADER
"PSFversion" "1.00"
"Time Stamp" "Jan 23 17:51:42 2020"
TYPE
"variable" STRUCT(
"value" FLOAT DOUBLE
) PROP( "key" "element" )
VALUE
"VDS" "variable" ( 0 ) PROP( )
"VSB" "variable" ( 500e-3 ) PROP( )
"VGS" "variable" ( 1 ) PROP( )
"temp" "variable" ( 27 ) PROP( )
END
