HEADER
"PSFversion" "1.00"
"design" "(\"Proj2\" \"tb_Abs_Value_Detector\" \"schematic\" \"\")"
"simulator" "spectre"
"temperature" "27"
"host" ""
"date" "Mar  7 10:53:39 2020"
"title" ""
"analysisList" "()"
END
