HEADER
"PSFversion" "1.00"
"Time Stamp" "Mar  7 10:53:39 2020"
TYPE
"variable" STRUCT(
"value" FLOAT DOUBLE
) PROP( "key" "element" )
VALUE
"VEXT" "variable" ( 1 ) PROP( )
"VDD" "variable" ( 1 ) PROP( )
"temp" "variable" ( 27 ) PROP( )
END
