HEADER
"PSFversion" "1.00"
"NM1n NM0n" "gpdk090_nmos1v_spectre"
"PM1n PM0n" "gpdk090_pmos1v_spectre"
"V5n V4n V3n V2n V1n V0n" "analogLib_vdc_spectre"
