HEADER
"PSFversion" "1.00"
"__NEXT_FILE__" "HW3_inverters"
