HEADER
"PSFversion" "1.00"
"design" "(\"ee115c\" \"MOS_IV\" \"schematic\" \"\")"
"simulator" "spectre"
"temperature" "27"
"host" ""
"date" "Jan 14 15:31:53 2020"
"title" ""
"analysisList" "()"
END
