HEADER
"PSFversion" "1.00"
"I7n I8n" "AND2X1"
"I0n I1n" "INVX1"
"I14n" "NOR2X1"
