HEADER
"PSFversion" "1.00"
"__NEXT_FILE__" "sina_1bit_comp"
