HEADER
"PSFversion" "1.00"
"I0n" "_sub2"
"V4n V3n V2n V1n V0n" "analogLib_vdc_spectre"
