HEADER
"PSFversion" "1.00"
"design" "(\"Proj\" \"sina_1bit_comp\" \"schematic\" \"\")"
"simulator" "spectre"
"temperature" "27"
"host" ""
"date" "Mar  6 13:09:58 2020"
"title" ""
"analysisList" "()"
END
