HEADER
"PSFversion" "1.00"
"design" "(\"ee115c\" \"Ring_OSC\" \"schematic\" \"\")"
"simulator" "spectre"
"temperature" "27"
"host" ""
"date" "Jan 22 11:04:28 2020"
"title" ""
"analysisList" "()"
END
