HEADER
"PSFversion" "1.00"
"simulator" "spectre"
"version" "16.1.0.479.isr9"
"date" "11:04:30 AM, Wed Jan 22, 2020"
"design" "// Generated for: spectre"
"analysis type" "info.subckts"
"analysis name" "subckts"
"analysis description" "Circuit Information"
"xVecSorted" "unknown"
"tolerance.relative" 0.00100000
TYPE
"subckt" STRUCT(
"subckt_params" STRING *
"subckt_terminals" STRING *
"subckt_instances" STRING *
) PROP(
"key" "sub"
)
VALUE
"resnsppoly" "subckt" (
""
""
""
)
"gpdk090_ndio_na25" "subckt" (
""
""
""
)
"gpdk090_pdio_hvt" "subckt" (
""
""
""
)
"resnsnpoly" "subckt" (
""
""
""
)
"gpdk090_ndio_na" "subckt" (
""
""
""
)
"gpdk090_pdio_25" "subckt" (
""
""
""
)
"gpdk090_pdio" "subckt" (
""
""
""
)
"ressndiff" "subckt" (
""
""
""
)
"gpdk090_nmos1v_iso" "subckt" (
""
""
""
)
"INVX1" "subckt" (
""
"A GND VDD Z"
"I14 I13 I12 I11 I10 I9 I8 I7 I6 I5 I4 I3 I2 I1 I0"
)
"gpdk090_resnsndiff" "subckt" (
""
""
""
)
"resnspdiff" "subckt" (
""
""
""
)
"gpdk090_ndio_25" "subckt" (
""
""
""
)
"gpdk090_ndio" "subckt" (
""
""
""
)
"ressnpoly" "subckt" (
""
""
""
)
"resnwsti" "subckt" (
""
""
""
)
"resspdiff" "subckt" (
""
""
""
)
"ressppoly" "subckt" (
""
""
""
)
"gpdk090_nwdio" "subckt" (
""
""
""
)
"gpdk090_ndio_hvt" "subckt" (
""
""
""
)
"resnwoxide" "subckt" (
""
""
""
)
END
