HEADER
"PSFversion" "1.00"
"Time Stamp" "Jan 22 11:04:28 2020"
TYPE
"variable" STRUCT(
"value" FLOAT DOUBLE
) PROP( "key" "element" )
VALUE
"temp" "variable" ( 27 ) PROP( )
END
