HEADER
"PSFversion" "1.00"
"NM0n" "gpdk090_nmos1v_spectre"
"V3n V2n V1n V0n" "analogLib_vdc_spectre"
