HEADER
"PSFversion" "1.00"
"VSS!v" "VSS!v"
"VDD!v" "VDD!v"
