HEADER
"PSFversion" "1.00"
"I34n I20n I19n I18n I17n I16n I15n I8n I7n I6n I2n I1n I0n" "NAND2X1"
"I26n I22n I21n I14n I13n I10n I9n I4n I3n" "INVX1"
"I24n I23n I12n I11n I5n" "NOR2X1"
"I30n" "NAND3X1"
"I31n" "NAND4X1"
"I35n I33n" "NAND5"
