HEADER
"PSFversion" "1.00"
"design" "(\"Proj\" \"project1\" \"schematic\" \"\")"
"simulator" "spectre"
"temperature" "27"
"host" ""
"date" "Mar  4 12:43:08 2020"
"title" ""
"analysisList" "()"
END
