HEADER
"PSFversion" "1.00"
"simulator" "spectre"
"version" "16.1.0.479.isr9"
"date" "12:43:08 PM, Wed Mar 4, 2020"
"design" "// Generated for: spectre"
"analysis type" "info.subckts"
"analysis name" "subckts"
"analysis description" "Circuit Information"
"xVecSorted" "unknown"
"tolerance.relative" 0.00100000
TYPE
"subckt" STRUCT(
"subckt_params" STRING *
"subckt_terminals" STRING *
"subckt_instances" STRING *
) PROP(
"key" "sub"
)
VALUE
"gpdk090_nmos1v_iso" "subckt" (
""
""
""
)
"gpdk090_pdio_25" "subckt" (
""
""
""
)
"gpdk090_ndio_na" "subckt" (
""
""
""
)
"ressppoly" "subckt" (
""
""
""
)
"gpdk090_pdio_hvt" "subckt" (
""
""
""
)
"gpdk090_nwdio" "subckt" (
""
""
""
)
"NOR2X1" "subckt" (
""
"A B Y inh_VDD inh_VSS"
"I8 I7"
)
"XOR2X1" "subckt" (
""
"A B Y inh_VDD inh_VSS"
"I4 I3 I2 I1 I0"
)
"gpdk090_ndio_25" "subckt" (
""
""
""
)
"resnsppoly" "subckt" (
""
""
""
)
"ressnpoly" "subckt" (
""
""
""
)
"gpdk090_ndio" "subckt" (
""
""
""
)
"gpdk090_resnsndiff" "subckt" (
""
""
""
)
"gpdk090_ndio_hvt" "subckt" (
""
""
""
)
"resnwsti" "subckt" (
""
""
""
)
"INVX1" "subckt" (
""
"A Y inh_VDD inh_VSS"
"I17 I11 I10 I9"
)
"NAND2X1" "subckt" (
""
"A B Y inh_VDD inh_VSS"
"I27 I26 I25 I24 I23 I22 I21 I20 I19 I18 I16 I15 I14 I13 I12 I6 I5"
)
"resnsnpoly" "subckt" (
""
""
""
)
"resnspdiff" "subckt" (
""
""
""
)
"resspdiff" "subckt" (
""
""
""
)
"ressndiff" "subckt" (
""
""
""
)
"gpdk090_pdio" "subckt" (
""
""
""
)
"resnwoxide" "subckt" (
""
""
""
)
"gpdk090_ndio_na25" "subckt" (
""
""
""
)
END
