HEADER
"PSFversion" "1.00"
"Time Stamp" "Mar  4 12:43:08 2020"
TYPE
"variable" STRUCT(
"value" FLOAT DOUBLE
) PROP( "key" "element" )
VALUE
"temp" "variable" ( 27 ) PROP( )
END
