HEADER
"PSFversion" "1.00"
"mp3n mp1n mp4n mp0n mp5n mp2n" "gpdk090_pmos1v_spectre"
"mn1n mn0n mn5n mn3n mn4n mn2n" "gpdk090_nmos1v_spectre"
"Av" ":1v"
"Bv" ":2v"
"Yv" ":3v"
"VDDv" ":4v"
"VSSv" ":5v"
