HEADER
"PSFversion" "1.00"
"I0n" "_sub0"
"V2n V1n V0n" "analogLib_vdc_spectre"
