HEADER
"PSFversion" "1.00"
"Time Stamp" "Jan 26 16:03:26 2020"
TYPE
"variable" STRUCT(
"value" FLOAT DOUBLE
) PROP( "key" "element" )
VALUE
"VDS" "variable" ( 0 ) PROP( )
"VSB" "variable" ( 0 ) PROP( )
"VGS" "variable" ( 400e-3 ) PROP( )
"temp" "variable" ( 27 ) PROP( )
END
