HEADER
"PSFversion" "1.00"
"Run Generator" "drlRun rev. 1.0"
"Run Time Stamp" "Jan 14 15:31:53 2020"
"date" "Jan 14 15:31:53 2020"
"simulator" "spectre"
"netlistDir" "../netlist"
TYPE
"runObject" STRUCT(
"logName" ARRAY( * ) STRING *
"parent" STRING *
"sweepVariable" ARRAY( * ) STRING *
) PROP( "key" "runObject" )
VALUE
"Root" "runObject" (
("")
""
("VGS")
)
"VGS=0.2/psf" "runObject" (
(
"../VGS=0.2/psf/logFile"
"../VGS=0.2/psf/artistLogFile"
)
"Root"
()
) PROP(
"netlistDir" "../netlist"
"dataDir" "../VGS=0.2"
 "VGS" 2.000000e-01
)

"VGS=0.4/psf" "runObject" (
(
"../VGS=0.4/psf/logFile"
"../VGS=0.4/psf/artistLogFile"
)
"Root"
()
) PROP(
"netlistDir" "../netlist"
"dataDir" "../VGS=0.4"
 "VGS" 4.000000e-01
)

"VGS=0.6/psf" "runObject" (
(
"../VGS=0.6/psf/logFile"
"../VGS=0.6/psf/artistLogFile"
)
"Root"
()
) PROP(
"netlistDir" "../netlist"
"dataDir" "../VGS=0.6"
 "VGS" 6.000000e-01
)

"VGS=0.8/psf" "runObject" (
(
"../VGS=0.8/psf/logFile"
"../VGS=0.8/psf/artistLogFile"
)
"Root"
()
) PROP(
"netlistDir" "../netlist"
"dataDir" "../VGS=0.8"
 "VGS" 8.000000e-01
)

"VGS=1/psf" "runObject" (
(
"../VGS=1/psf/logFile"
"../VGS=1/psf/artistLogFile"
)
"Root"
()
) PROP(
"netlistDir" "../netlist"
"dataDir" "../VGS=1"
 "VGS" 1.000000e+00
)

END
