HEADER
"PSFversion" "1.00"
"design" "(\"Proj\" \"comparator\" \"schematic\" \"\")"
"simulator" "spectre"
"temperature" "27"
"host" ""
"date" "Mar  5 09:55:31 2020"
"title" ""
"analysisList" "()"
END
