HEADER
"PSFversion" "1.00"
"Log Generator" "drlLog rev. 1.0"
"Log Time Stamp" "Mon Feb  3 21:44:43 2020"
"simulator" "spectre"
"version" "16.1.0.479.isr9"
"date" "9:44:43 PM, Mon Feb 3, 2020"
"design" "// Generated for: spectre"
"signalNameType" "spectre"
"simMode" "Spectre"
"measdgt" 0
"ingold" 2
"sst2usecolon" 0
TYPE
"analysisInst" STRUCT(
"analysisType" STRING *
"dataFile" STRING *
"format" STRING *
"parent" STRING *
"sweepVariable" ARRAY ( * ) STRING *
"description" STRING *
)
VALUE
"dc-dc" "analysisInst" (
"dc"
"dc.dc"
"PSF"
""
("VIN")
"DC Analysis `dc': VIN = (0 -> 1)"
) PROP(
"data_type" "scalar"
)

"modelParameter-info" "analysisInst" (
"info"
"modelParameter.info"
"PSF"
""
()
"Circuit Information"
) PROP(
"data_type" "struct"
)

"element-info" "analysisInst" (
"info"
"element.info"
"PSF"
""
()
"Circuit Information"
) PROP(
"data_type" "struct"
)

"outputParameter-info" "analysisInst" (
"info"
"outputParameter.info"
"PSF"
""
()
"Circuit Information"
) PROP(
"data_type" "struct"
)

"designParamVals-info" "analysisInst" (
"info"
"designParamVals.info"
"PSF"
""
()
"Circuit Information"
) PROP(
"data_type" "struct"
)

"primitives-info.primitives" "analysisInst" (
"info.primitives"
"primitives.info.primitives"
"PSF"
""
()
"Circuit Information"
)
"subckts-info.subckts" "analysisInst" (
"info.subckts"
"subckts.info.subckts"
"PSF"
""
()
"Circuit Information"
)
END
