HEADER
"PSFversion" "1.00"
"design" "(\"ee115c\" \"HW3_inverters\" \"schematic\" \"\")"
"simulator" "spectre"
"temperature" "27"
"host" ""
"date" "Feb  3 21:44:41 2020"
"title" ""
"analysisList" "()"
END
