HEADER
"PSFversion" "1.00"
"design" "(\"ee115c\" \"FO4-inv\" \"schematic\" \"\")"
"simulator" "spectre"
"temperature" "27"
"host" ""
"date" "Feb 21 20:33:22 2020"
"title" ""
"analysisList" "()"
END
