HEADER
"PSFversion" "1.00"
"simulator" "spectre"
"version" "16.1.0.479.isr9"
"date" "8:33:25 PM, Fri Feb 21, 2020"
"design" "// Generated for: spectre"
"analysis type" "info.subckts"
"analysis name" "subckts"
"analysis description" "Circuit Information"
"xVecSorted" "unknown"
"tolerance.relative" 0.00100000
TYPE
"subckt" STRUCT(
"subckt_params" STRING *
"subckt_terminals" STRING *
"subckt_instances" STRING *
) PROP(
"key" "sub"
)
VALUE
"gpdk090_pdio" "subckt" (
""
""
""
)
"resnsnpoly" "subckt" (
""
""
""
)
"resnwsti" "subckt" (
""
""
""
)
"ressndiff" "subckt" (
""
""
""
)
"ressnpoly" "subckt" (
""
""
""
)
"gpdk090_ndio_na25" "subckt" (
""
""
""
)
"gpdk090_pdio_25" "subckt" (
""
""
""
)
"gpdk090_ndio_na" "subckt" (
""
""
""
)
"gpdk090_ndio_hvt" "subckt" (
""
""
""
)
"resnsppoly" "subckt" (
""
""
""
)
"gpdk090_ndio_25" "subckt" (
""
""
""
)
"resnspdiff" "subckt" (
""
""
""
)
"gpdk090_ndio" "subckt" (
""
""
""
)
"gpdk090_nwdio" "subckt" (
""
""
""
)
"resspdiff" "subckt" (
""
""
""
)
"resnwoxide" "subckt" (
""
""
""
)
"gpdk090_nmos1v_iso" "subckt" (
""
""
""
)
"ressppoly" "subckt" (
""
""
""
)
"INVX1" "subckt" (
""
"A GND VDD Z"
"I6.I3 I6.I2 I6.I1 I6.I0 I5.I3 I5.I2 I5.I1 I5.I0 I4.I3 I4.I2 I4.I1 I4.I0"
)
"gpdk090_resnsndiff" "subckt" (
""
""
""
)
"gpdk090_pdio_hvt" "subckt" (
""
""
""
)
"FO4_inv_stage" "subckt" (
""
"A GND VDD VGOLD Z"
"I6 I5 I4"
)
END
