HEADER
"PSFversion" "1.00"
"Time Stamp" "Feb 21 20:33:22 2020"
TYPE
"variable" STRUCT(
"value" FLOAT DOUBLE
) PROP( "key" "element" )
VALUE
"VD" "variable" ( 1.0 ) PROP( )
"temp" "variable" ( 27 ) PROP( )
END
