HEADER
"PSFversion" "1.00"
"design" "(\"TB_PROJ\" \"new_1bit_comp\" \"schematic\" \"\")"
"simulator" "spectre"
"temperature" "27"
"host" ""
"date" "Mar  6 13:02:02 2020"
"title" ""
"analysisList" "()"
END
