HEADER
"PSFversion" "1.00"
"Time Stamp" "Mar  6 13:02:02 2020"
TYPE
"variable" STRUCT(
"value" FLOAT DOUBLE
) PROP( "key" "element" )
VALUE
"temp" "variable" ( 27 ) PROP( )
END
